# vtk DataFile Version 2.0
Image Data
ASCII
DATASET STRUCTURED_POINTS
DIMENSIONS 216 185 1
ORIGIN -78.755191 41.0909429 -0.016
SPACING 0.016 0.016 1
POINT_DATA 39960
SCALARS base_field float 1
LOOKUP_TABLE default
44.3736210821 41.9177827833 39.3867155649 36.8109553273 34.2222994867 31.6548920606 29.1450814447 26.731089131 24.4530490594 22.3529880451 20.4747877635 18.8642672722 17.5692950892 16.6396685403 16.1265535079 16.0814540959 16.5546915484 17.59340888 19.2391389184 21.5252015172 24.4743973728 28.0872015288 32.3407056042 37.1984952189 42.6113593486 48.5186791024 54.8500632623 61.5272465998 68.4664328929 75.5807266786 82.7821813461 89.9833057663 97.0981067664 104.042784822 110.736404049 117.101521352 123.064548456 128.555595847 133.508237377 137.860325437 141.556293815 144.550480168 146.810189169 148.317066488 149.067079918 149.070650685 148.353377768 146.956292392 144.934728683 142.355759143 139.294090261 135.826820344 132.028249731 127.96551911 123.694704485 119.256925225 114.675508091 109.955743831 105.087399588 100.04860852 94.8096909014 89.3365248946 83.5937220162 77.547598149 71.1682483242 64.4308946339 57.3178097187 49.820536667 41.9408255347 33.6905486052 25.0917899654 16.1768694935 6.98773492498 -2.42508900032 -12.0036213541 -21.6834145553 -31.3948983528 -41.0650171019 -50.6186525544 -59.980542231 -69.0782224691 -77.8454949087 -86.2249562035 -94.1683992634 -101.636223768 -108.598009601 -115.034941168 -120.9425757 -126.332254027 -131.23058214 -135.676423708 -139.716052023 -143.398283531 -146.770504491 -149.875001831 -152.744841906 -155.400217531 -157.846804648 -160.076603425 -162.070275955 -163.799892419 -165.23177694 -166.329499077 -167.057093531 -167.381793109 -167.276298234 -166.721562744 -165.709649566 -164.24512441 -162.345005047 -160.038506311 -157.366568832 -154.380684895 -151.141311014 -147.7163118 -144.179602328 -140.609387722 -137.085811064 -133.688582436 -130.494534382 -127.575076132 -124.994048561 -122.80640825 -121.057639017 -119.7833425 -119.008419715 -118.745738926 -118.994710586 -119.740524904 -120.954453804 -122.595361641 -124.612269761 -126.947278463 -129.538343699 -132.321812063 -135.234899351 -138.218124475 -141.217615501 -144.186997298 -147.088580094 -149.893926648 -152.583864432 -155.148045702 -157.584158175 -159.896924277 -162.096993755 -164.199824044 -166.224669561 -168.193705665 -170.13131824 -172.063404824 -174.016662358 -176.017827864 -178.092809253 -180.265760931 -182.558187374 -184.98812184 -187.56938755 -190.311051737 -193.217137508 -196.286606264 -199.513650848 -202.888231323 -206.39674426 -210.022830329 -213.74817758 -217.553269692 -221.418058341 -225.322559321 -229.24733073 -233.173942896 -237.085515565 -240.967263557 -244.807065183 -248.595968022 -252.328608479 -256.00337475 -259.622205757 -263.190114716 -266.71479625 -270.206262409 -273.676299405 -277.137816545 -280.60409396 -284.088021821 -287.601340956 -291.153971829 -294.75335715 -298.403864824 -302.106089443 -305.855854513 -309.643294298 -313.452247157 -317.2599231 -321.036685356 -324.745878324 -328.344272244 -331.797236275 -335.082561827 -338.179899121 -341.071297134 -343.741569088 -346.178486562 -348.372881036 -350.318614853 -352.012542674 -353.454404321 -354.646702439 -355.594562632 -356.305476442 -356.78900086 -357.056315382 -357.119461404 -356.990571832 -356.680679303 -356.196906993 141.954220442 127.830364851 118.258694319 112.80114427 108.928005842 104.038174299 97.3202787915 87.4201628247 73.9488798657 58.6082579175 45.3839613476 35.0499159375 28.9417921582 23.817349104 20.246494917 18.314816145 17.0588346997 14.9003263989 10.5695005933 3.76434770018 -4.60925612062 -13.5648225269 -21.2859834155 -26.0825417957 -25.9145997485 -20.0357202014 -7.90980467408 11.2637297192 37.7483564892 69.2250792065 105.151394514 139.452725081 169.464916853 193.869335798 212.451153425 225.369366316 235.145031599 241.165447859 244.409069685 246.096752791 247.300335554 244.90800157 239.722485212 233.646038679 228.1394774 220.363415388 210.465160994 199.119457869 185.806881575 169.457943586 150.941494612 131.006222395 107.701687483 82.1470915356 56.3755842724 33.8327528516 11.4586760083 -10.0867379627 -28.1732324085 -37.3785222492 -35.413245531 -26.1170114002 -15.5204003772 6.74551835448 43.0921064892 78.3438536206 111.717190413 147.891415266 184.121426252 201.837292341 190.989788679 165.973156599 134.775524763 90.4049955884 37.6471602002 -6.60589155763 -38.5866387805 -62.8668676338 -84.4864991626 -103.407439562 -115.953734728 -126.308688494 -134.140544268 -141.976802202 -152.165622087 -159.8111299 -159.249949785 -159.861628862 -166.896891924 -179.103541704 -194.877993914 -210.128024431 -223.703936907 -235.819705339 -245.056002947 -253.643328997 -260.649295183 -264.180911394 -266.736575457 -268.055285784 -268.197375627 -264.89567885 -255.625476213 -242.356891008 -230.378375383 -223.137790056 -220.247607561 -219.600589128 -219.393451067 -216.031451555 -209.847827288 -199.790225359 -187.262767168 -172.719210955 -155.837703081 -138.394854875 -121.276286455 -105.938182207 -92.1499284229 -80.056825014 -72.0977920017 -66.9223758003 -65.6675987562 -67.3341779432 -72.1173509082 -78.2697776279 -84.8000806293 -90.7044385394 -95.8165887317 -100.883796068 -105.578067156 -110.522368761 -116.577334734 -122.27131209 -128.559810015 -133.687396379 -139.266856523 -143.481982561 -147.800029131 -151.505580278 -154.218943926 -156.067042681 -157.234927507 -157.152301165 -155.722819658 -155.582957598 -154.7406877 -154.544131609 -153.641665789 -155.2279695 -155.787791582 -157.538028093 -158.67679915 -160.637446733 -163.591517778 -166.136897417 -169.377925249 -173.465075823 -177.527728411 -181.483294817 -185.662280413 -189.065463396 -192.751925798 -194.720553728 -198.50102553 -202.340533586 -206.902896257 -211.509662004 -217.696734758 -223.079745623 -230.120059343 -235.567599626 -240.630236956 -244.240039202 -248.113253923 -249.173068376 -251.052096697 -251.026446672 -251.866076799 -250.711749407 -253.083148333 -253.631198259 -256.811587664 -259.053912493 -261.311435076 -263.849749895 -265.012729021 -267.851657244 -267.041903826 -268.438433977 -268.713488909 -270.807467791 -273.362460466 -276.805560442 -282.945605608 -286.994906755 -288.812503191 -287.990008684 -286.837573381 -284.511996599 -279.642932268 -273.857104631 -268.039889666 -263.796099993 -258.802508684 -254.663134905 -246.203097673 -237.682116838 -227.074420305 -218.515246721 -210.899173113 -199.820620867 -184.796237322 -160.068797441 -134.749911638 -116.839389177 141.933437971 128.825451521 119.434322981 112.247524885 104.724865583 95.9165770093 84.35583177 70.1273771802 53.0897795239 35.385708479 20.0106932202 7.76991715819 0.160114912098 -2.71840986818 -3.09988340943 -1.17390760987 2.62157884032 6.57578721434 8.84667649657 7.38998093993 1.99747147948 -5.6130403003 -13.2119973621 -18.3092606983 -19.9793847522 -17.75014052 -10.2064279041 4.46655717284 24.9170118848 50.0176817456 79.9070707837 111.552242903 140.966259626 166.867657332 188.888271956 204.85355821 214.860638289 221.750897078 226.21558824 227.177929548 226.656780867 226.444012312 224.940838484 221.786450056 218.340252546 215.41279283 211.592327742 205.349499373 196.586041121 185.319485334 170.655407576 153.46633592 134.961239485 115.715359358 93.682873396 70.228588728 45.0996519604 20.0833555737 -1.63568434327 -15.0999101123 -16.8154443225 -11.1812966785 -4.73626265138 7.51107468993 33.269314436 66.9860197583 102.989559797 139.789318708 170.040463118 181.314556746 173.097363142 152.363201765 122.017788557 80.3913237134 33.856121687 -7.50173887818 -42.0612367114 -70.9175561389 -93.9836438617 -109.361426683 -119.55634627 -127.854064318 -136.211551042 -143.974337908 -149.366755815 -149.573520037 -144.300746294 -142.017245623 -144.960383745 -151.241298052 -160.16521773 -171.145144792 -183.787036272 -197.05784926 -209.505359026 -221.315631243 -232.467837664 -240.635302874 -246.35788283 -251.220095964 -254.091830584 -252.947757097 -246.80923781 -236.476306292 -226.961413713 -221.672534319 -219.829959246 -220.218844744 -220.302996965 -217.765536638 -211.29739699 -201.330630632 -189.108058306 -175.288653704 -160.11783156 -143.752169939 -125.807399126 -108.653735491 -93.0403207263 -80.7162822208 -71.6738069972 -66.4715619928 -65.5794480762 -66.442682693 -70.0689121208 -75.1622928104 -82.2605203113 -89.3756078204 -95.4808743915 -100.948153826 -106.228392931 -111.102507921 -116.248332354 -122.134951921 -128.150359484 -133.88887343 -139.446803423 -144.875583025 -149.210292192 -152.952975603 -156.380915972 -158.492732378 -159.890269609 -160.857676836 -160.272960039 -158.536860796 -156.172885271 -154.494685503 -153.475451799 -152.83834395 -153.797725054 -154.976741167 -156.558680864 -158.94986281 -161.313151689 -164.79474959 -169.071734758 -174.309008928 -179.241916033 -183.440600725 -187.073527666 -190.13459334 -193.384707781 -196.564685198 -198.503207537 -200.598910662 -203.922885271 -208.167651506 -213.014605852 -218.597094866 -224.104190203 -229.883273455 -235.073809954 -238.741580339 -241.868701311 -244.455935808 -245.678454729 -246.089694353 -246.708728167 -247.545611711 -248.99144301 -252.129641863 -254.442782732 -257.557940813 -260.555804583 -263.83066115 -265.651736589 -267.726016375 -269.54562697 -270.562152239 -272.644015642 -275.368914934 -279.361224504 -284.285724016 -289.864856096 -295.978518816 -299.53831801 -302.030902239 -302.879687639 -302.196902605 -300.483355852 -297.409076067 -293.54133925 -290.096774431 -286.763812395 -283.243060442 -278.974139543 -272.528933855 -265.763232561 -256.738711687 -247.468402239 -235.930606218 -222.830325457 -203.509433123 -179.813754412 -158.820712419 131.950314192 122.752453474 115.390453962 108.119427351 98.9525419751 87.018231062 71.5091826001 52.8619886914 32.501812605 12.5100523511 -4.45613417237 -16.1515038928 -23.3246911487 -25.2186425647 -21.2681458911 -13.3132470569 -4.46412977784 3.0962111035 8.67659440429 10.8230940381 8.61809983641 3.42116227538 -3.12182173341 -8.43300184816 -11.6006425342 -11.6870873889 -8.06819853395 0.517323164052 13.6893660107 31.364765791 53.6063047925 80.8727690259 109.559216169 136.937817244 160.373654036 179.187664656 192.373058943 200.553784041 204.903515486 207.154644636 206.876812605 204.442028669 202.620800642 202.095348982 202.640087751 202.851269392 203.529797224 202.436566023 198.297466902 191.867413191 183.22982469 171.363690046 157.062451033 141.603207258 124.911801008 107.251553206 83.7201506177 56.0644041577 29.1192060986 10.0500303784 3.49142899901 6.07248368651 7.95607438475 6.75761094481 17.3809095898 47.9585768262 81.2535673657 115.687801985 143.888165144 154.475063948 145.817562727 125.007244734 96.6261717358 61.9118773022 21.2683149853 -20.2463563403 -56.2148650607 -84.3257249317 -104.409961077 -117.679568621 -127.516375872 -134.803462358 -140.25997481 -143.717624041 -147.362552019 -143.960849138 -134.567889543 -128.986232134 -128.557017656 -130.336959215 -133.07813582 -137.496707292 -145.731547686 -157.557238909 -169.079570146 -182.410006853 -197.736087175 -210.410693499 -219.83519301 -228.15588698 -234.493274065 -236.95616469 -234.633044573 -228.217791887 -220.836779924 -217.020785662 -216.560321184 -216.824801775 -217.815463396 -217.030551287 -212.168460222 -203.229953142 -191.517733904 -178.425525042 -163.004039141 -146.876307817 -129.306826921 -111.76633391 -95.6823056659 -81.9459699115 -71.9229286632 -65.7162304839 -62.8278146705 -64.0835128745 -67.1699526629 -73.0369528255 -79.0430205783 -85.9409402332 -92.6466706714 -99.1139024219 -104.922053667 -111.260959001 -116.625148149 -121.827384325 -127.39920363 -133.219592424 -139.301242205 -144.424815508 -149.832125994 -153.873668047 -157.161021563 -159.705607744 -161.547458025 -161.991786333 -162.558368059 -162.638675066 -161.024768206 -158.794230791 -156.756709429 -155.621852251 -153.937320085 -154.237643572 -154.787417742 -156.18259749 -158.523776384 -161.343882891 -165.405032488 -170.033313127 -174.620204302 -180.038119646 -185.051997515 -188.776965471 -191.512294146 -194.391917559 -197.244632097 -199.850039812 -202.049243303 -205.821261736 -209.877246233 -215.006625505 -220.210559221 -225.323794695 -229.570056292 -234.071627947 -237.417025896 -239.453982683 -241.947024675 -242.77760634 -244.651522966 -245.706256243 -248.031817766 -249.733661028 -253.028659197 -256.534472795 -259.829486223 -263.074954363 -266.416308733 -268.243060442 -269.996936174 -272.436282488 -274.625094744 -278.129443499 -283.35422072 -290.413180681 -297.982440325 -303.784304949 -309.225802751 -311.792361589 -315.49573073 -317.67213759 -318.262500139 -318.258303972 -316.762927385 -316.304797502 -313.988238665 -312.323397966 -309.776584001 -306.189669939 -300.838443132 -295.151263567 -286.25227675 -274.209857317 -260.457217546 -244.536486956 -224.346621843 -202.845446917 117.360775618 113.78048387 108.676754622 101.771923689 92.6515165845 80.2261473218 62.3046080151 40.4834639111 17.3550612012 -3.18522200196 -20.1522592029 -32.7857392749 -39.5362161121 -39.3709729633 -33.5857232532 -22.8980248889 -9.69683012574 1.84592881591 10.0783583203 15.5973402539 17.2186323682 14.1673246899 8.64571824462 3.44984879882 -0.51894697755 -2.07200941651 -1.61556562989 1.76480546386 7.87923112304 19.3482100049 34.928425459 56.1478926221 81.6283384839 109.016155867 133.28223863 154.071484236 170.509426741 181.521542219 186.851589827 188.034023909 186.933041243 184.843334822 183.254177717 182.392193464 183.596157698 185.702084211 187.241528181 188.600582747 190.06425157 189.03614488 185.781277327 179.755612043 171.990383772 162.631268171 150.591030745 135.683483748 115.645611433 90.1314512768 62.5737425366 38.6779905835 25.8421293774 22.7080580273 21.0738264599 13.2807127515 9.15336289794 27.6050077954 53.0052534619 79.2213408032 101.891537336 111.450619368 105.550182966 89.7505613843 68.292248396 40.7055479565 2.21316209227 -38.4479497394 -73.6151059589 -98.6524423084 -115.472037645 -127.848739 -140.220752092 -147.122142168 -146.809672686 -148.006099077 -147.677409502 -141.05294356 -130.005935045 -121.295737596 -117.643405291 -114.758235308 -113.12741408 -114.785018297 -118.903209063 -125.268317553 -131.851718279 -141.965495439 -156.251788469 -171.68549666 -187.191356035 -200.862872454 -210.663119646 -215.177752825 -215.570742937 -212.925021501 -209.878756853 -208.982089373 -210.576037737 -213.857318254 -215.400805803 -215.483081194 -211.219836565 -204.164218279 -194.475810381 -181.959506365 -167.423053118 -150.530177446 -131.795810076 -115.115050646 -98.974826189 -85.6707662067 -73.9847534618 -66.6153432822 -62.3779209575 -61.1265042743 -64.1352880916 -69.1484709701 -76.0012772998 -82.7552979907 -89.384446474 -96.3012250385 -102.893054338 -108.889140459 -115.380473467 -121.244590136 -127.018908831 -132.457705828 -138.407954546 -143.490352007 -148.573321672 -152.965037676 -156.767321917 -159.227282854 -161.473185869 -162.737727495 -162.846736284 -162.57233748 -162.222407671 -161.914012285 -160.564112993 -158.637767168 -156.922160479 -155.003962847 -155.01980147 -156.167033525 -157.617534014 -160.772357317 -163.043101641 -166.291026445 -169.282817217 -173.87034926 -178.313052507 -183.273425432 -187.655993792 -191.758380266 -194.542331072 -199.135714861 -202.201052996 -206.023532244 -209.407824846 -214.450457903 -219.173327776 -224.019000383 -228.931430193 -232.10737929 -236.052600237 -238.121020647 -240.248690935 -242.328570696 -244.037402483 -246.125964495 -247.923297258 -249.905154558 -251.755465837 -255.425357195 -259.25404677 -262.314792009 -264.978915544 -268.229266497 -270.541308733 -272.819857927 -276.365039202 -279.515155168 -285.203860613 -292.872958513 -302.065051409 -309.885501238 -315.755969377 -321.513537737 -324.973895403 -329.49824843 -332.715136858 -335.482776018 -337.667773577 -338.431292864 -338.773028704 -338.934222551 -339.41319594 -338.506366106 -334.745776506 -328.060992571 -320.931262346 -310.644030901 -298.593951555 -282.985339495 -264.431704851 -243.107409807 99.9609495679 100.401165632 97.8952147046 91.6020781079 81.8507353345 68.5408903638 50.7515760937 29.232571272 6.49756303222 -14.2774613818 -31.318915697 -43.3931783161 -49.1780351123 -48.8244393787 -42.0802968463 -30.2618745288 -15.6971734485 -1.29229292482 10.0783812085 17.9810301343 22.6951643506 23.3271070996 21.3685041943 18.2306715527 14.9263807812 11.8230940381 9.44986405761 8.62401261718 10.3807112256 15.1807753125 24.7459303418 40.0157896558 61.0059172192 85.7606169263 111.185040144 133.353329329 150.968975691 162.874844221 169.735546736 171.505917219 169.491055159 167.596661238 167.150677351 166.600323347 166.600063948 167.262829451 169.971172957 172.886349348 175.450131086 178.040142683 179.0845305 178.784100203 177.055905012 173.847607283 166.668942122 155.206494001 137.393200544 113.833202986 88.3369108716 65.576031355 50.1560026684 41.8059736767 34.7822157422 24.5593153516 13.8505980054 13.9148069897 27.1618620434 43.3056379834 56.5030485669 64.0871244946 62.7649199048 53.0978437939 38.1918760815 15.6163450757 -17.5926583728 -56.0576871356 -88.4040788135 -110.586116167 -125.133624407 -136.040683123 -144.491542192 -146.662913652 -140.959590288 -144.022174211 -149.989909502 -144.082118364 -132.115466448 -122.077182146 -113.170356127 -104.262412401 -97.9103826007 -97.1176274738 -99.4357140979 -102.677676531 -106.384627672 -112.320067736 -121.414149614 -133.13597426 -148.211268755 -165.062846514 -179.428180071 -188.117869707 -192.000087114 -192.987094255 -194.206912371 -197.379626604 -202.231158586 -208.205615374 -213.279712053 -214.285586687 -211.15500197 -204.202121111 -195.058017107 -183.709842058 -170.509349199 -155.032832476 -137.146464678 -119.179286333 -102.737185808 -88.2392667255 -76.9057858905 -68.2480318269 -63.4301417789 -61.873263689 -62.7249415836 -66.2199370286 -71.4554184398 -78.9927829227 -86.443871828 -93.5482762775 -100.379981371 -106.939578386 -112.826426836 -119.2657083 -125.758620592 -131.926684709 -137.493327471 -142.919062944 -148.10333571 -152.146144243 -155.752124163 -158.829409929 -160.86783156 -162.481410356 -163.196360918 -162.721820208 -161.560305925 -160.978808733 -160.78365645 -160.045153948 -158.968524309 -158.607776018 -158.000041338 -158.052668901 -159.145892473 -160.613688799 -163.298640581 -165.691432329 -168.611583086 -171.545985552 -174.607196184 -178.496753069 -183.379588457 -188.285395952 -193.045321794 -196.261676165 -200.36152968 -205.229297014 -209.763461443 -214.532138201 -219.386142107 -224.18776259 -229.360461565 -233.432315203 -236.161166521 -239.050982805 -241.945910784 -243.848727556 -245.810016008 -247.347903582 -248.651675554 -250.663943621 -253.489489885 -256.195712419 -259.301516863 -262.801761003 -265.472689959 -267.616153093 -270.800982805 -274.020358416 -277.213427874 -281.952853533 -287.485965105 -294.593066545 -303.089709612 -312.11354384 -320.368106218 -327.151538225 -334.73451552 -340.82637343 -346.469348284 -351.947711321 -355.818621965 -358.912463518 -360.573291155 -362.549243303 -366.252703997 -370.409930559 -370.482714983 -365.257586809 -356.093402239 -345.279651018 -332.917590471 -318.935153337 -301.451861711 -282.139666887 80.2744719067 83.8770414868 82.6671568433 75.8375669995 65.6430021802 52.5723463574 35.8942381421 15.3927504101 -5.69209227174 -24.6777680835 -39.3764356098 -49.2721913776 -54.607222887 -54.6974538287 -48.5412267169 -37.8766454181 -24.2287019214 -8.61586699098 5.08747544677 14.4024778882 23.9208952466 28.862232832 30.1797300854 29.8409315625 28.5006605664 25.6316572705 21.5381895581 18.0160566846 16.1857496777 16.7749525586 21.0491377392 31.1737028638 48.2377897778 70.627026228 94.8899199048 117.599301008 134.566952375 146.804287581 153.958843855 155.649670271 154.302120833 152.29610887 150.931606916 150.751705793 151.299832014 151.481487898 152.3945128 154.227154402 156.51157823 158.292355208 161.938122419 164.765347151 169.266354231 170.878109602 170.456417708 165.272747664 151.012737898 130.657513289 108.17185655 88.3768278638 74.8666197339 64.8998686352 53.7189451733 39.2343412915 23.8120085278 12.8286711255 13.5541960278 20.8156553784 27.99204698 31.6146818677 30.7208372632 26.3864790478 17.9995085278 2.98314347655 -25.5439904651 -64.5919097385 -97.9802964649 -118.813166948 -131.3709825 -141.104640337 -149.527980181 -152.350909563 -151.102397295 -152.540423723 -154.934901567 -149.758754106 -137.140185686 -126.413127275 -115.68876967 -102.772075029 -91.3408559284 -86.1748212299 -85.1553395709 -85.7954038104 -84.0339883289 -85.2419465503 -92.548503252 -100.924907061 -113.818728777 -127.99900374 -143.647029253 -155.613147112 -163.376246782 -168.391002031 -174.636828752 -182.680774065 -192.349795671 -200.417620989 -207.790820452 -211.048571917 -209.448550554 -202.753512712 -193.467273088 -181.999705645 -169.851291033 -155.363627764 -139.603251787 -122.995410295 -106.398692461 -91.5625337085 -78.9983447513 -70.6542099437 -64.5161033592 -62.3726180515 -63.3644200286 -66.0964321813 -71.0008939227 -77.1658595523 -84.0007432422 -91.7395223102 -98.3005555591 -105.040091844 -111.808741899 -117.971305223 -124.406882616 -130.532061907 -136.912433 -142.290500017 -147.956981035 -152.419917437 -156.152308794 -158.649470659 -161.076457354 -161.682399126 -162.294688555 -162.546870562 -162.55584273 -161.086612078 -160.209178301 -159.169688555 -159.294787737 -158.371241899 -159.707461687 -159.476817461 -160.395976396 -161.263781877 -162.957095476 -165.664897295 -169.254718157 -171.992411943 -175.078708025 -178.0297502 -180.610453936 -184.371531816 -187.387210222 -192.46120772 -195.876834246 -201.977420183 -207.936969133 -213.594668718 -218.535724016 -223.738849016 -228.097140642 -233.026004167 -237.738131853 -241.091266008 -244.231265398 -247.176608416 -248.57347426 -249.515582415 -249.691607805 -251.868930193 -254.099398943 -258.261111589 -260.713687273 -264.226916643 -267.026706072 -269.397418352 -271.845797869 -274.425738665 -278.500125261 -281.974261614 -288.211795183 -295.290072771 -304.632037493 -314.432650896 -323.402423235 -331.638964983 -340.234332415 -350.534106584 -359.625445696 -366.867541643 -373.378314348 -377.854144426 -382.299609514 -383.527850481 -385.688311907 -392.817309709 -398.511157366 -397.156482073 -391.214373918 -379.969256731 -368.141497942 -353.075732561 -338.175464006 -319.328311296 57.8423430005 61.8882566968 60.7816969433 53.9277464429 43.6052824536 31.3300291577 17.1109510937 0.623295454091 -15.7066911182 -29.8952058276 -40.6176026782 -48.4640286884 -53.0845673999 -53.3179696521 -49.4576848468 -42.5278371295 -32.0136331043 -17.8472131213 -4.09922728151 8.41997971923 20.3160215893 28.2125364819 32.3096815625 34.3351942578 34.5931211987 32.6115004101 28.6581694165 24.6705519238 22.1544996777 22.0481916943 25.811527876 34.1739164868 48.2892271558 67.1009794751 87.3419004956 106.215115217 123.031475691 135.835369734 143.72893968 145.921993879 144.361614851 140.12032762 135.683682112 132.447216658 131.171978621 129.454540876 128.328472761 128.210888533 128.994549421 131.928799299 135.514828352 141.117687849 148.206936506 154.003079084 158.412930159 158.350002913 152.056728987 140.702847151 126.650997786 112.629589705 102.225384382 92.7382933179 80.4052092114 63.6885191479 45.0265623608 30.0046354809 24.0473066846 22.6972471753 22.4670530835 21.8510710278 21.9725309888 19.898472456 15.5200850049 6.61996140868 -14.8546594104 -53.8878463229 -91.8013871631 -116.074321123 -131.174556108 -142.07638106 -150.731395098 -157.055781694 -161.556613298 -163.268092485 -159.859546038 -151.504657122 -140.118434282 -130.556186052 -119.896983477 -107.78618178 -95.3139413318 -85.9314931354 -80.5950721225 -73.5047558269 -65.0189150295 -61.5157397708 -64.2772761306 -70.6746943912 -82.1068938693 -97.4495690784 -111.773600908 -123.970450731 -133.97455916 -141.53832564 -150.28441176 -161.931269976 -175.17743239 -188.061976763 -198.10057387 -202.467685076 -201.500628801 -196.429080339 -189.17705092 -180.214183184 -168.896975847 -155.515071245 -139.661036821 -123.756373735 -108.4228929 -94.6005013904 -82.8681138477 -73.3158629855 -67.2376384458 -63.9621981105 -63.8230172118 -67.1708221158 -72.1697557887 -78.6799615344 -84.400607439 -90.758237215 -97.3390305957 -103.776137682 -110.350100847 -117.148585649 -123.839328142 -129.781531664 -135.851977678 -141.969203325 -147.189334246 -151.748858782 -155.95830855 -158.65185103 -160.259127947 -161.291735979 -161.418666216 -161.04361281 -160.941836687 -160.613604875 -159.964701982 -158.445216509 -157.789607378 -157.222659441 -157.14832625 -158.18007979 -159.781001421 -161.002681108 -163.089724871 -165.297877642 -168.173846575 -171.501536699 -174.557132097 -178.138781877 -180.390025469 -182.58369002 -184.681102129 -187.376307817 -192.770526262 -197.928714128 -203.344027849 -209.772601458 -216.316256853 -222.702288958 -229.006656023 -233.972369524 -239.163623186 -243.869967791 -246.498721453 -248.390216204 -250.010913225 -251.364016863 -252.893206926 -254.688540789 -256.11883864 -258.355761858 -261.987933489 -265.905185076 -269.461016985 -272.285662981 -275.189120623 -276.758151384 -279.601123186 -283.674701067 -288.738986345 -295.847735735 -305.062228533 -315.765857073 -325.915240618 -335.112017961 -345.705767961 -356.423693987 -369.139300676 -380.736621233 -389.393054338 -396.701526018 -402.157550188 -406.133014055 -408.258685442 -414.720568987 -422.036670061 -422.524493547 -417.734423967 -410.610370012 -400.279132219 -387.210833879 -372.007708879 -354.485247942 34.7762419263 37.3098875561 35.9675261059 29.7420698682 20.225262312 9.84875169188 -0.317378374034 -10.8866761646 -19.9345544299 -27.8579667529 -35.937142702 -43.3580125293 -47.5487531146 -49.1754964313 -48.0561002216 -44.0806439838 -36.9380658588 -25.537490221 -11.707007738 2.75397935302 15.4634672681 24.2261091748 30.0526548901 33.2839323559 33.9976851025 32.8967787305 30.4844175854 27.8316923657 26.7432295361 28.0435072461 32.4110456982 41.1732451001 53.7812925854 69.5784575024 87.0298430005 105.511349348 122.467404036 134.330105452 139.718746809 141.821224836 139.024731306 132.35003343 125.360821394 119.739727644 114.766918806 110.349316267 107.240383772 105.908154158 105.378491072 106.070095686 112.003628401 119.036755232 126.2332274 133.180035261 139.416729597 143.078076033 143.971783308 142.464687971 138.429592756 133.430187849 129.597576765 125.496670393 115.37435594 98.9132505933 78.8425718823 61.516567854 50.5691420117 44.838757185 40.2386366406 37.8277861157 36.8483168164 35.5841566601 34.2681242505 27.2367750683 6.7401854077 -29.6957505664 -71.1576155147 -103.387183519 -124.066699358 -137.564311357 -146.925738665 -154.045962664 -159.419932695 -161.297160479 -159.39165053 -151.081103655 -139.723086687 -132.575084063 -124.620456072 -114.04562697 -102.119647356 -91.6501649341 -82.7430051288 -71.6108644924 -59.1913665256 -50.8037274799 -46.8634065112 -47.301501604 -54.7181476077 -67.4441300353 -81.7270825824 -93.7984345874 -102.948161455 -112.348727556 -122.238475176 -134.234103533 -149.189036699 -166.383433672 -183.101184221 -192.159472795 -192.992472979 -189.073054644 -182.816157671 -175.662906023 -167.193362566 -155.31679854 -141.03315291 -124.816779467 -109.295432421 -96.2519601306 -85.4929192981 -76.7547343692 -70.0571907481 -67.2080185732 -66.6746076962 -68.4646575174 -72.7108658275 -78.2494271716 -84.8489850482 -91.197198244 -97.2173112354 -103.711913439 -109.794402452 -115.695140215 -122.240893694 -128.786387773 -135.012446733 -140.753779741 -146.164843889 -150.91748366 -154.439952227 -157.675052019 -159.500285479 -160.466296526 -160.91949019 -160.911418291 -159.600703569 -158.544146868 -157.885485979 -157.607356401 -156.694888445 -155.983249041 -156.148295732 -155.78819594 -157.48275313 -158.963588091 -161.232608171 -164.062800737 -166.046176287 -168.760585161 -171.488772722 -174.370242449 -177.433787676 -180.743121477 -184.526332231 -187.485858293 -191.017344805 -196.003375383 -201.608737322 -207.877215715 -214.654361101 -221.408633562 -228.140994402 -234.526034685 -240.305606218 -244.888430925 -248.578067156 -250.67718825 -252.049487444 -254.658770891 -256.525256487 -258.717685076 -259.836551042 -261.777011248 -263.901141497 -268.071811052 -272.767215105 -275.834079119 -277.374820085 -279.621692034 -281.773730608 -285.254245134 -290.430514666 -296.732440325 -304.938006731 -315.11632094 -326.517138811 -337.682757708 -349.386554094 -362.785937639 -376.270007463 -390.395922991 -402.756884905 -412.299548479 -420.21007094 -427.813617083 -435.257739397 -442.026019426 -448.479815813 -448.654101702 -443.647754045 -437.423114153 -428.141101213 -418.313067766 -404.256701799 -387.785540911 13.749241499 16.3892485181 13.8547178784 8.15166154296 -0.441096635753 -7.49080977052 -11.7616570911 -14.3075517139 -18.7743066272 -24.1572259387 -30.0972016773 -35.9005902728 -41.2993386707 -45.9164346179 -49.3548692188 -49.387854906 -43.3964799365 -30.9636681995 -13.5645478687 3.00898423583 14.5105864087 22.4978834668 27.7050215283 31.4432722607 32.5155531445 32.1043745557 30.9693876782 30.312031416 30.2383925 31.5107771435 36.000149397 44.6335646191 57.5833937207 72.8618437329 89.9765593091 109.969647078 130.260555891 142.79913011 145.033306746 145.00465074 141.456753401 134.367260603 124.907971052 116.128369001 109.107388166 102.992581038 99.3898436108 97.9294249097 97.7865721265 99.3265196362 102.556622175 107.869106916 113.538784651 120.928433088 127.125530867 133.176464705 139.621670393 145.030666975 148.800747541 152.162487654 157.08642259 158.673885969 152.323406843 139.801037458 120.989422468 101.703259138 87.7541014233 79.5949675122 73.4716307202 68.9602324048 66.1919981518 62.3937956372 57.6639296094 49.4807402173 29.2913939038 -4.84329924195 -47.0364602527 -85.1801274738 -113.193106981 -129.750415178 -140.461100908 -148.763957354 -152.576808306 -154.736232134 -151.955462786 -146.21523604 -140.721255632 -135.487422319 -128.810996386 -119.670573564 -107.600688311 -96.3844045123 -87.003630968 -76.9973214588 -64.6225092134 -52.2551768741 -40.6673177203 -35.8812516651 -37.426667