# vtk DataFile Version 2.0
Edge Intensities
ASCII
DATASET POLYDATA
POINTS 71484 float
-76.771191 41.1869429 -0.016
-76.755191 41.1869429 -0.016
-76.739191 41.1869429 -0.016
-76.739191 41.1709429 -0.016
-76.755191 41.1549429 -0.016
-76.771191 41.1389429 -0.016
-76.755191 41.1389429 -0.016
-76.771191 41.1229429 -0.016
-76.755191 41.1229429 -0.016
-78.739191 41.3629429 -0.016
-78.755191 41.3789429 -0.016
-78.739191 41.3949429 -0.016
-78.739191 41.4109429 -0.016
-78.739191 41.4269429 -0.016
-78.723191 41.4429429 -0.016
-78.723191 41.4589429 -0.016
-78.723191 41.4749429 -0.016
-78.707191 41.4909429 -0.016
-78.691191 41.5069429 -0.016
-78.707191 41.5229429 -0.016
-78.707191 41.5389429 -0.016
-78.723191 41.5549429 -0.016
-78.739191 41.5549429 -0.016
-78.755191 41.5389429 -0.016
-76.339191 41.5709429 -0.016
-76.355191 41.5869429 -0.016
-76.371191 41.6029429 -0.016
-76.355191 41.6189429 -0.016
-76.355191 41.6349429 -0.016
-76.355191 41.6509429 -0.016
-76.371191 41.6669429 -0.016
-76.371191 41.6829429 -0.016
-76.355191 41.6989429 -0.016
-76.339191 41.7149429 -0.016
-76.323191 41.7149429 -0.016
-76.307191 41.7149429 -0.016
-76.291191 41.7149429 -0.016
-76.275191 41.7149429 -0.016
-76.259191 41.7149429 -0.016
-76.259191 41.6989429 -0.016
-76.259191 41.6829429 -0.016
-76.259191 41.6669429 -0.016
-76.259191 41.6509429 -0.016
-76.275191 41.6349429 -0.016
-76.275191 41.6189429 -0.016
-76.275191 41.6029429 -0.016
-76.291191 41.5869429 -0.016
-76.307191 41.5869429 -0.016
-76.323191 41.5709429 -0.016
-76.819191 43.1869429 -0.016
-76.819191 43.2029429 -0.016
-76.835191 43.2189429 -0.016
-76.851191 43.2349429 -0.016
-76.835191 43.2509429 -0.016
-76.851191 43.2669429 -0.016
-76.867191 43.2669429 -0.016
-76.883191 43.2829429 -0.016
-76.899191 43.2669429 -0.016
-76.915191 43.2509429 -0.016
-76.931191 43.2349429 -0.016
-76.947191 43.2349429 -0.016
-76.963191 43.2509429 -0.016
-76.979191 43.2509429 -0.016
-76.995191 43.2349429 -0.016
-76.979191 43.2349429 -0.016
-76.963191 43.2349429 -0.016
-77.043191 42.0509429 -0.016
-77.059191 42.0509429 -0.016
-77.075191 42.0509429 -0.016
-77.091191 42.0509429 -0.016
-77.107191 42.0349429 -0.016
-77.123191 42.0349429 -0.016
-77.139191 42.0189429 -0.016
-77.155191 42.0029429 -0.016
-77.139191 42.0029429 -0.016
-78.339191 41.4269429 -0.016
-78.323191 41.4429429 -0.016
-78.307191 41.4429429 -0.016
-78.291191 41.4589429 -0.016
-78.275191 41.4589429 -0.016
-78.259191 41.4749429 -0.016
-78.243191 41.4749429 -0.016
-78.227191 41.4909429 -0.016
-78.211191 41.5069429 -0.016
-78.195191 41.5229429 -0.016
-78.179191 41.5389429 -0.016
-78.163191 41.5549429 -0.016
-78.163191 41.5709429 -0.016
-78.147191 41.5869429 -0.016
-78.131191 41.6029429 -0.016
-78.115191 41.6189429 -0.016
-78.099191 41.6349429 -0.016
-78.083191 41.6509429 -0.016
-78.067191 41.6669429 -0.016
-78.051191 41.6669429 -0.016
-78.035191 41.6829429 -0.016
-78.019191 41.6989429 -0.016
-78.003191 41.6989429 -0.016
-77.987191 41.7149429 -0.016
-77.971191 41.7149429 -0.016
-77.955191 41.7309429 -0.016
-77.939191 41.7309429 -0.016
-77.923191 41.7469429 -0.016
-77.907191 41.7469429 -0.016
-77.891191 41.7469429 -0.016
-77.875191 41.7629429 -0.016
-77.859191 41.7629429 -0.016
-77.843191 41.7629429 -0.016
-77.827191 41.7629429 -0.016
-77.811191 41.7629429 -0.016
-77.795191 41.7629429 -0.016
-77.779191 41.7789429 -0.016
-77.763191 41.7789429 -0.016
-77.747191 41.7789429 -0.016
-77.731191 41.7789429 -0.016
-77.715191 41.7949429 -0.016
-77.699191 41.7949429 -0.016
-77.699191 41.7789429 -0.016
-77.683191 41.7789429 -0.016
-77.667191 41.7789429 -0.016
-77.651191 41.7789429 -0.016
-77.635191 41.7789429 -0.016
-77.635191 41.7629429 -0.016
-77.619191 41.7629429 -0.016
-77.603191 41.7629429 -0.016
-77.587191 41.7789429 -0.016
-77.587191 41.7949429 -0.016
-77.571191 41.8109429 -0.016
-77.555191 41.8109429 -0.016
-77.555191 41.7949429 -0.016
-77.539191 41.7949429 -0.016
-77.523191 41.7949429 -0.016
-77.523191 41.7789429 -0.016
-77.507191 41.7789429 -0.016
-77.507191 41.7629429 -0.016
-77.523191 41.7469429 -0.016
-77.523191 41.7309429 -0.016
-77.523191 41.7149429 -0.016
-77.507191 41.7149429 -0.016
-77.507191 41.6989429 -0.016
-77.507191 41.6829429 -0.016
-77.507191 41.6669429 -0.016
-77.523191 41.6509429 -0.016
-77.507191 41.6509429 -0.016
-76.931191 42.4349429 -0.016
-76.931191 42.4509429 -0.016
-76.947191 42.4669429 -0.016
-76.963191 42.4829429 -0.016
-76.979191 42.4989429 -0.016
-76.995191 42.5149429 -0.016
-77.011191 42.5309429 -0.016
-77.027191 42.5309429 -0.016
-77.043191 42.5149429 -0.016
-77.059191 42.4989429 -0.016
-77.059191 42.4829429 -0.016
-77.043191 42.4829429 -0.016
-77.043191 42.4669429 -0.016
-77.027191 42.4669429 -0.016
-77.027191 42.4509429 -0.016
-77.011191 42.4509429 -0.016
-77.011191 42.4349429 -0.016
-77.011191 42.4189429 -0.016
-76.995191 42.4189429 -0.016
-76.995191 42.4029429 -0.016
-76.979191 42.4029429 -0.016
-76.963191 42.4029429 -0.016
-76.947191 42.4189429 -0.016
-76.947191 42.4029429 -0.016
-78.419191 43.4269429 -0.016
-78.435191 43.4429429 -0.016
-78.451191 43.4589429 -0.016
-78.467191 43.4589429 -0.016
-78.483191 43.4589429 -0.016
-78.499191 43.4429429 -0.016
-78.515191 43.4429429 -0.016
-78.531191 43.4269429 -0.016
-78.547191 43.4269429 -0.016
-78.563191 43.4109429 -0.016
-78.579191 43.3949429 -0.016
-78.595191 43.3789429 -0.016
-78.611191 43.3629429 -0.016
-78.611191 43.3469429 -0.016
-78.611191 43.3309429 -0.016
-78.611191 43.3149429 -0.016
-78.627191 43.2989429 -0.016
-78.643191 43.2829429 -0.016
-78.643191 43.2669429 -0.016
-78.643191 43.2509429 -0.016
-78.627191 43.2509429 -0.016
-78.611191 43.2509429 -0.016
-78.595191 43.2669429 -0.016
-78.579191 43.2829429 -0.016
-78.579191 43.2669429 -0.016
-78.563191 43.2669429 -0.016
-78.563191 43.2509429 -0.016
-78.547191 43.2509429 -0.016
-78.531191 43.2669429 -0.016
-76.355191 42.5149429 -0.016
-76.339191 42.5309429 -0.016
-76.339191 42.5149429 -0.016
-76.339191 42.4989429 -0.016
-76.323191 42.4989429 -0.016
-76.323191 42.4829429 -0.016
-76.307191 42.4829429 -0.016
-76.291191 42.4829429 -0.016
-76.307191 42.4669429 -0.016
-76.323191 42.4669429 -0.016
-76.339191 42.4669429 -0.016
-76.355191 42.4669429 -0.016
-76.371191 42.4829429 -0.016
-76.371191 42.4989429 -0.016
-75.587191 41.8909429 -0.016
-75.571191 41.9069429 -0.016
-75.555191 41.9229429 -0.016
-75.539191 41.9389429 -0.016
-75.523191 41.9549429 -0.016
-75.507191 41.9709429 -0.016
-75.491191 41.9709429 -0.016
-75.475191 41.9709429 -0.016
-75.459191 41.9869429 -0.016
-75.443191 41.9869429 -0.016
-75.427191 41.9869429 -0.016
-75.411191 41.9869429 -0.016
-75.395191 41.9869429 -0.016
-75.379191 41.9869429 -0.016
-75.363191 41.9869429 -0.016
-75.347191 42.0029429 -0.016
-75.363191 42.0189429 -0.016
-75.379191 42.0349429 -0.016
-75.395191 42.0349429 -0.016
-75.411191 42.0189429 -0.016
-75.395191 42.0189429 -0.016
-75.379191 42.0189429 -0.016
-75.363191 42.0349429 -0.016
-75.347191 42.0509429 -0.016
-75.331191 42.0509429 -0.016
-75.315191 42.0669429 -0.016
-78.595191 42.1629429 -0.016
-78.595191 42.1789429 -0.016
-78.579191 42.1949429 -0.016
-78.563191 42.1949429 -0.016
-78.563191 42.1789429 -0.016
-78.547191 42.1789429 -0.016
-78.547191 42.1629429 -0.016
-78.547191 42.1469429 -0.016
-78.547191 42.1309429 -0.016
-78.547191 42.1149429 -0.016
-78.531191 42.1149429 -0.016
-78.531191 42.0989429 -0.016
-78.515191 42.0989429 -0.016
-78.515191 42.0829429 -0.016
-78.515191 42.0669429 -0.016
-78.515191 42.0509429 -0.016
-78.499191 42.0509429 -0.016
-78.499191 42.0349429 -0.016
-78.499191 42.0189429 -0.016
-78.499191 42.0029429 -0.016
-78.499191 41.9869429 -0.016
-78.515191 41.9709429 -0.016
-78.531191 41.9549429 -0.016
-78.547191 41.9389429 -0.016
-78.547191 41.9229429 -0.016
-78.563191 41.9069429 -0.016
-78.579191 41.8909429 -0.016
-78.595191 41.8749429 -0.016
-78.611191 41.8589429 -0.016
-78.627191 41.8429429 -0.016
-78.643191 41.8269429 -0.016
-78.643191 41.8109429 -0.016
-78.659191 41.7949429 -0.016
-78.675191 41.7789429 -0.016
-78.691191 41.7629429 -0.016
-78.707191 41.7469429 -0.016
-78.723191 41.7309429 -0.016
-78.723191 41.7149429 -0.016
-78.739191 41.6989429 -0.016
-78.739191 41.6829429 -0.016
-78.755191 41.6669429 -0.016
-78.755191 41.6509429 -0.016
-76.179191 42.2749429 -0.016
-76.195191 42.2909429 -0.016
-76.211191 42.3069429 -0.016
-76.227191 42.3229429 -0.016
-76.243191 42.3229429 -0.016
-76.259191 42.3229429 -0.016
-76.275191 42.3389429 -0.016
-76.291191 42.3229429 -0.016
-76.307191 42.3229429 -0.016
-76.323191 42.3229429 -0.016
-76.339191 42.3229429 -0.016
-76.355191 42.3229429 -0.016
-76.371191 42.3229429 -0.016
-76.387191 42.3229429 -0.016
-76.403191 42.3069429 -0.016
-76.419191 42.3069429 -0.016
-76.435191 42.2909429 -0.016
-76.451191 42.2909429 -0.016
-76.467191 42.2909429 -0.016
-76.483191 42.3069429 -0.016
-76.499191 42.3229429 -0.016
-76.515191 42.3389429 -0.016
-76.531191 42.3549429 -0.016
-76.547191 42.3709429 -0.016
-76.547191 42.3869429 -0.016
-76.531191 42.4029429 -0.016
-76.515191 42.4189429 -0.016
-76.499191 42.4349429 -0.016
-76.483191 42.4349429 -0.016
-76.467191 42.4349429 -0.016
-76.451191 42.4349429 -0.016
-76.435191 42.4349429 -0.016
-76.419191 42.4349429 -0.016
-76.419191 42.4189429 -0.016
-76.403191 42.4189429 -0.016
-76.387191 42.4189429 -0.016
-76.371191 42.4189429 -0.016
-76.371191 42.4029429 -0.016
-76.355191 42.4029429 -0.016
-76.339191 42.4029429 -0.016
-76.323191 42.4029429 -0.016
-76.323191 42.3869429 -0.016
-76.307191 42.3869429 -0.016
-76.291191 42.3869429 -0.016
-76.275191 42.3869429 -0.016
-76.275191 42.3709429 -0.016
-76.259191 42.3709429 -0.016
-76.243191 42.3709429 -0.016
-76.227191 42.3709429 -0.016
-76.211191 42.3869429 -0.016
-76.195191 42.4029429 -0.016
-76.179191 42.4029429 -0.016
-76.163191 42.4189429 -0.016
-76.147191 42.4349429 -0.016
-76.131191 42.4349429 -0.016
-76.115191 42.4349429 -0.016
-76.099191 42.4349429 -0.016
-76.083191 42.4509429 -0.016
-76.067191 42.4509429 -0.016
-76.051191 42.4669429 -0.016
-76.035191 42.4829429 -0.016
-76.019191 42.4989429 -0.016
[...]
POINT_DATA 71484
SCALARS multiscale_edge_intensities double 1
LOOKUP_TABLE default
130.269378662 135.109115601 139.502960205 136.741043091 129.928924561 122.882209778 126.54309845 122.303718567 124.629386902 40.0706787109 38.72838974 52.6042823792 62.0780296326 68.4191665649 78.5250167847 84.4785461426 86.1226348877 89.2197036743 98.2813186646 100.7081604 104.125297546 112.041908264 110.861724854 85.845916748 246.829315186 246.804046631 247.653198242 243.599777222 242.643966675 241.858016968 242.749328613 240.802398682 237.999786377 239.019775391 240.559310913 243.189041138 246.541656494 250.371444702 254.520324707 250.603042603 248.242446899 247.476776123 247.004547119 244.882751465 244.628860474 245.089920044 245.531112671 245.591400146 246.454147339 96.8830490112 104.092010498 121.949073792 134.318862915 159.782577515 156.863388062 142.705886841 90.4172286987 108.489479065 138.601623535 182.687179565 190.214096069 197.39503479 195.356323242 195.423339844 178.553604126 188.261154175 519.842834473 502.409057617 474.446075439 436.510284424 424.809997559 363.756958008 307.274230957 287.643066406 308.989959717 172.823410034 174.991439819 181.154937744 182.163421631 188.51260376 189.481628418 197.134689331 205.220306396 216.919036865 226.97857666 233.56072998 240.465377808 241.444198608 254.286697388 265.545837402 276.500305176 288.110809326 299.173156738 307.494506836 317.370758057 325.603729248 334.682647705 346.693908691 348.488128662 352.402282715 354.854675293 362.411468506 357.355499268 360.828765869 356.583129883 336.134124756 333.39755249 331.201751709 329.052124023 326.29309082 322.120178223 299.60546875 296.196624756 290.325378418 280.510070801 245.895523071 228.608108521 247.748641968 230.343170166 209.772705078 184.902175903 157.554733276 164.687820435 138.946044922 112.67288208 82.9190826416 65.9482345581 65.8080749512 75.3690795898 58.9623947144 60.9789848328 63.9681930542 49.2847518921 49.3140220642 36.8495941162 22.703540802 10.8938579559 26.1447105408 32.7151947021 47.3170394897 62.5418548584 77.6384887695 81.2620391846 90.5996017456 450.147796631 517.660400391 566.399719238 581.072753906 541.780212402 455.753448486 391.51550293 394.696838379 406.459442139 415.748046875 397.577972412 357.293395996 320.322937012 281.353851318 224.885513306 174.735565186 162.33656311 225.941070557 215.379577637 279.699462891 286.690002441 311.228637695 377.509887695 333.015411377 288.160583496 364.296966553 369.489990234 414.585113525 423.759277344 465.406768799 456.594726562 460.469390869 469.555023193 477.545043945 488.699829102 485.355407715 422.700256348 436.084838867 436.091552734 465.224182129 512.039672852 516.766601562 539.141052246 518.475341797 440.057861328 287.023254395 208.227142334 313.808135986 217.644058228 225.790603638 239.06288147 234.174087524 106.610687256 199.369537354 236.246582031 194.6875 151.037582397 129.860275269 80.8060150146 63.5676383972 67.5357589722 34.9049491882 72.1512069702 116.26361084 160.372009277 170.025802612 168.243377686 63.0119934082 52.2601242065 41.6508522034 31.7793998718 24.2842979431 21.5444774628 21.881608963 24.6007423401 29.9427051544 33.2359237671 36.8665542603 40.6307678223 43.8049163818 46.8939552307 50.7499160767 56.6924057007 53.0591583252 46.7090682983 43.6026573181 43.0213012695 46.0959472656 49.6632614136 50.3591117859 53.5405769348 51.1872177124 53.330909729 284.731384277 337.352996826 387.059814453 367.309906006 348.580657959 345.391448975 351.890869141 345.18951416 327.093902588 298.949035645 305.041412354 281.658752441 278.801361084 266.818511963 257.098968506 245.83770752 254.276596069 246.407318115 242.102554321 239.870635986 240.884719849 242.477203369 250.736083984 259.391296387 268.108703613 272.480895996 278.480072021 292.341949463 312.848602295 342.113037109 374.380859375 400.388061523 424.505432129 438.977478027 441.214630127 426.007171631 389.466552734 375.95513916 326.647277832 316.843444824 256.174591064 237.093704224 203.215988159 225.841567993 242.092056274 256.518981934 258.407043457 252.614135742 248.988174438 214.622253418 186.294067383 158.159744263 134.294189453 111.770149231 83.0948181152 51.4509468079 88.9029846191 112.053199768 162.815994263 173.163986206 180.523376465 232.754211426 299.188934326 346.512481689 378.381896973 403.223815918 440.893493652 498.142791748 540.214538574 526.739440918 539.280822754 525.060546875 495.231079102 462.767547607 424.895019531 445.705993652 411.342956543 368.172027588 326.34552002 337.509002686 310.807342529 290.272216797 273.648864746 280.834014893 274.522491455 269.103271484 266.893554688 274.851806641 283.451141357 297.355133057 311.748565674 319.792999268 321.566955566 327.905426025 332.261962891 331.377868652 335.913024902 336.252990723 338.642272949 335.64163208 342.728088379 322.875518799 290.837615967 256.995758057 236.582199097 227.961486816 224.887115479 215.681503296 159.5962677 87.3954467773 24.101682663 115.111549377 73.8001174927 55.0998535156 71.9099273682 112.021652222 135.208862305 167.185623169 199.275375366 217.298797607 208.065231323 198.669250488 211.473098755 211.187438965 202.727966309 195.216110229 178.079986572 172.387130737 168.912277222 412.841033936 383.306121826 350.906829834 346.655059814 363.009490967 345.097839355 339.57711792 312.890472412 315.501800537 304.873474121 377.984893799 381.817687988 418.806488037 441.454223633 514.703857422 596.080078125 647.155212402 585.648376465 574.548583984 483.941009521 376.911010742 336.897125244 358.552642822 315.634216309 283.862304688 160.456954956 147.678421021 130.718917847 145.471420288 138.956069946 186.7006073 207.479492188 214.706756592 290.889373779 279.328582764 306.670501709 314.615814209 270.091400146 243.047302246 272.023773193 288.842346191 300.242950439 320.058654785 424.225006104 461.966766357 355.670623779 369.673370361 449.767028809 492.103851318 512.123168945 556.312133789 579.883361816 565.36706543 429.170379639 195.242523193 375.551391602 434.07913208 380.588226318 414.249725342 522.227600098 208.406433105 225.90536499 90.1190948486 254.003677368 303.443023682 250.997177124 265.378448486 317.237426758 261.522583008 223.905014038 222.865692139 347.948455811 378.111724854 426.6534729 470.206451416 438.09552002 456.332855225 228.072296143 261.727966309 293.187896729 314.307891846 319.739654541 351.527282715 346.505859375 331.761413574 340.978118896 331.317749023 339.294952393 328.042694092 334.745544434 318.004943848 308.60647583 276.197631836 245.022537231 238.755950928 236.058731079 208.431259155 190.798324585 188.713897705 170.56942749 127.611572266 91.1277008057 89.4948043823 79.7596435547 82.6453552246 84.795539856 86.5669326782 87.4734954834 88.0939254761 88.5932235718 89.4522247314 90.1513442993 90.6196060181 91.1672210693 91.114364624 91.1097259521 91.309135437 91.5545654297 91.1989440918 91.1774291992 91.063331604 561.599365234 510.094940186 455.999206543 405.397979736 342.770690918 273.660858154 210.867538452 188.648178101 211.084732056 184.046112061 185.857299805 133.711746216 136.930633545 178.818618774 246.062408447 257.712677002 255.843963623 329.61630249 477.757110596 613.834838867 621.505737305 650.077514648 697.577575684 646.216369629 632.24432373 427.657073975 406.982543945 494.956054688 483.420898438 517.238220215 134.516967773 111.053123474 88.8726196289 92.5641098022 96.0324859619 91.2222366333 76.9800186157 44.4860420227 39.4859199524 61.9323272705 106.451950073 174.841827393 210.294403076 176.428512573 207.616821289 190.428741455 131.148864746 145.931686401 153.245742798 152.169906616 159.774185181 213.118515015 223.762512207 254.691314697 301.665100098 320.520263672 317.425720215 385.892150879 370.932434082 363.222808838 371.399108887 388.52911377 490.977294922 561.453308105 596.600036621 543.903198242 473.506408691 398.602172852 303.721832275 215.589736938 134.577362061 316.48651123 247.45526123 387.895385742 615.250671387 688.646606445 635.231994629 672.281677246 753.456054688 787.112976074 948.389648438 973.87286377 813.60357666 746.45300293 772.663391113 652.598510742 368.914764404 348.698699951 335.336456299 318.068084717 303.262390137 312.414520264 315.633850098 312.941955566 301.846557617 278.091339111 257.250030518 247.043685913 179.023895264 175.646392822 172.373153687 169.330474854 167.864807129 165.878295898 164.93951416 163.658477783 164.029815674 164.496154785 167.139938354 170.144012451 173.394485474 176.609344482 179.75151062 182.940704346 188.968612671 192.062026978 195.017379761 194.911865234 198.356872559 206.009002686 209.18510437 211.29927063 216.143371582 216.840332031 218.910675049 218.52532959 217.621917725 215.097854614 212.922744751 210.775268555 208.796081543 206.41078186 206.202102661 209.551651001 212.474395752 214.170562744 214.082107544 213.609634399 212.456573486 209.968551636 206.887069702 201.259399414 196.810684204 189.153076172 180.613861084 171.533905029 162.528091431 157.166641235 148.805831909 142.424346924 138.954849243 133.940460205 130.979476929 128.091644287 125.202102661 119.71257782 116.627548218 113.746337891 110.930252075 105.643623352 102.759994507 100.231987 96.1427154541 93.8937225342 92.7524032593 91.9463653564 128.662658691 115.104492188 74.6855545044 96.4213638306 107.155319214 112.123176575 139.304428101 127.060142517 136.322036743 166.657745361 193.537857056 202.671707153 210.723709106 229.733535767 273.083282471 277.384490967 289.263031006 296.42755127 307.025268555 322.917236328 340.279144287 352.55847168 357.297027588 376.918884277 367.451721191 317.658508301 273.240905762 273.293395996 274.692749023 263.851348877 284.7003479 315.862304688 362.220825195 386.328063965 369.617980957 341.231536865 313.463409424 333.361633301 308.822875977 313.009460449 323.167907715 391.249908447 446.276245117 405.839172363 410.68927002 382.106933594 446.002624512 520.669921875 440.899810791 374.105285645 261.055114746 252.014373779 247.927566528 242.755630493 105.936943054 159.35369873 99.5785903931 78.8204727173 54.5482521057 71.4067382812 125.758079529 137.013168335 148.053619385 152.394882202 141.100708008 168.429504395 198.892333984 176.523239136 163.66192627 169.068634033 37.9872436523 216.724304199 279.609222412 291.337402344 537.484313965 564.838012695 676.703613281 635.108642578 556.846191406 652.435058594 687.70892334 620.261047363 680.745666504 619.797302246 554.898010254 599.182250977 571.785888672 623.932128906 538.930419922 459.571289062 367.370574951 298.64364624 252.431304932 233.605529785 380.026702881 493.903625488 394.101715088 418.982055664 236.175292969 159.011779785 88.1946716309 103.498023987 59.6540107727 67.7579269409 88.1628112793 109.602806091 92.2161941528 77.1097488403 82.5576477051 103.351081848 152.26675415 148.582717896 183.653457642 226.701263428 180.184051514 83.5280685425 132.210906982 277.718811035 320.870758057 197.109191895 151.641098022 79.5610580444 95.2397155762 165.264038086 155.630706787 120.66242218 268.955749512 268.639831543 253.591720581 228.111022949 225.613693237 208.105102539 210.43598938 210.324249268 198.998733521 201.057830811 188.908233643 171.373657227 165.315322876 179.616226196 198.652328491 212.594680786 222.171844482 239.338119507 241.49446106 232.885177612 223.16595459 200.526077271 169.74520874 161.941558838 156.043762207 164.294708252 153.695541382 156.642730713 209.102966309 189.665710449 163.114501953 161.802581787 136.497955322 193.243331909 378.253540039 345.671203613 312.229400635 433.501342773 387.780761719 359.774047852 340.98739624 307.038269043 117.712654114 100.667816162 192.895812988 163.705688477 243.367370605 247.709381104 279.699951172 276.038574219 136.771102905 141.138305664 273.525787354 598.630249023 477.864227295 396.35144043 338.990966797 296.662017822 218.348709106 233.107269287 224.645706177 292.864624023 590.057312012 558.313964844 872.012939453 812.565368652 693.398742676 449.602478027 270.620025635 229.959655762 137.46105957 231.824172974 166.341751099 125.681411743 121.069221497 144.992263794 66.1905593872 115.025787354 100.79246521 86.4524154663 72.8698272705 116.250152588 191.87663269 220.307403564 199.60975647 243.948745728 226.828079224 36.4590682983 48.763420105 76.1892242432 64.1599197388 73.1791610718 92.17628479 115.291778564 131.525970459 141.747558594 128.449172974 124.986312866 128.370697021 126.378570557 117.53037262 345.113616943 346.55078125 345.262786865 347.420257568 356.457702637 383.570739746 398.958465576 416.167694092 448.092529297 462.697387695 473.064727783 467.853942871 473.199645996 474.780731201 483.184112549 490.195037842 501.794708252 500.15914917 509.227020264 492.701507568 493.33303833 488.409790039 451.019744873 446.459777832 401.585174561 355.510345459 324.399810791 297.790740967 272.26473999 254.077468872 233.928222656 209.609725952 199.453704834 203.271347046 209.543289185 216.607345581 222.296661377 222.919525146 246.506866455 267.271911621 288.824310303 304.040618896 335.246826172 342.732879639 349.778320312 343.213409424 317.492553711 283.293914795 225.887619019 165.610595703 109.657562256 65.2150802612 37.8070335388 32.1648597717 71.3912963867 143.560562134 198.637756348 157.47038269 160.107818604 152.773834229 160.075546265 168.05581665 203.707611084 221.048217773 226.860565186 169.897354126 111.029891968 71.8467254639 67.1948165894 94.3347167969 175.831100464 193.86882019 215.044296265 170.163635254 135.045654297 93.9293823242 174.152053833 190.535293579 88.6513824463 89.6337661743 91.2436752319 94.6617507935 100.058784485 106.85369873 114.793884277 117.76360321 121.355354309 124.913726807 128.261581421 122.402305603 117.345291138 111.7342453 106.480125427 101.938392639 101.391731262 100.767410278 99.5782470703 96.3386917114 95.6709747314 95.0922470093 96.5910110474 98.9098358154 102.868087769 107.544303894 113.010482788 116.303901672 122.551254272 129.869842529 138.096954346 141.727203369 149.893676758 156.382385254 160.991012573 163.688842773 163.003448486 151.867111206 144.37449646 133.724380493 121.359207153 119.359886169 121.37171936 125.126564026 130.550735474 137.041427612 144.450881958 152.916549683 161.640350342 169.41242981 177.403640747 184.337417603 189.135543823 194.879898071 197.819732666 201.766387939 204.604919434 208.659835815 209.386566162 208.920089722 207.083969116 203.727615356 199.868560791 196.113540649 192.733016968 189.511322021 186.089248657 182.599685669 42.2642173767 77.7778396606 40.9138717651 153.448806763 147.617263794 129.026687622 101.865249634 84.0692977905 112.55330658 122.461029053 119.432884216 122.958534241 102.519836426 71.2518310547 37.9749908447 68.8972473145 90.3390808105 72.2323760986 94.7050247192 76.4148330688 112.255172729 166.208511353 124.286392212 90.8807144165 211.291381836 212.403900146 215.144470215 216.375427246 221.967056274 224.31854248 230.023178101 229.422027588 226.617523193 226.440078735 219.0521698 215.000183105 209.646987915 211.374145508 64.3455810547 73.8961639404 81.6848449707 97.9246902466 97.2019500732 132.672790527 83.1789398193 55.8395576477 75.6585617065 82.8748779297 143.08026123 163.925628662 156.567718506 52.9349899292 41.318069458 53.5477027893 66.8283920288 88.1147994995 26.1074123383 120.123031616 72.7836837769 144.714813232 218.171554565 189.690231323 222.563919067 96.1166152954 370.344818115 369.566070557 370.377838135 373.146606445 369.353973389 360.51449585 351.458007812 341.405670166 330.292144775 311.389587402 301.178466797 286.539215088 278.606964111 271.166503906 263.365600586 256.964111328 249.754867554 241.244110107 231.144714355 222.069915771 215.980422974 207.208587646 198.623748779 190.252731323 187.290512085 179.063049316 169.42388916 157.748794556 144.294464111 129.352172852 121.330726624 104.933181763 89.2785644531 73.8576278687 57.1882362366 32.6371574402 35.1418380737 63.7715682983 75.1590423584 86.4760055542 94.063659668 98.4008255005 106.289581299 118.238876343 132.638595581 151.28742981 164.657745361 184.032974243 206.004150391 228.090942383 250.385681152 267.814727783 271.416748047 373.321411133 389.446777344 481.270202637 398.95513916 480.902557373 535.867614746 598.911010742 570.914428711 575.923156738 584.06842041 558.667053223 410.955291748 373.527679443 263.346923828 328.3956604 493.135162354 476.532348633 428.928375244 460.842437744 405.659240723 379.133789062 332.928009033 335.041656494 505.621704102 631.498168945 567.142944336 501.015258789 257.486999512 155.371658325 151.344528198 122.221893311 112.721435547 99.1204299927 103.904846191 120.387062073 143.003494263 134.083099365 113.515930176 60.6562232971 36.9768867493 72.8273544312 50.938243866 36.3740577698 34.284488678 36.5944900513 44.7387199402 72.3014450073 53.2189407349 43.9315299988 51.7202606201 48.3180847168 34.8194084167 61.2762641907 91.2627868652 100.416893005 96.7964019775 163.13117981 215.914352417 235.651901245 231.131408691 230.267272949 227.404464722 216.359725952 208.590774536 174.777191162 152.789840698 129.532714844 103.764190674 96.3045349121 93.2070465088 99.3865203857 100.458175659 232.100128174 227.850265503 217.773208618 229.129119873 214.879760742 183.123825073 155.182434082 135.434280396 126.201225281 120.6431427 111.780853271 105.032623291 94.8269195557 98.8024978638 99.2560424805 84.5884246826 118.885345459 112.879951477 61.8263473511 67.0194015503 52.1463661194 115.060562134 123.2735672 105.262741089 90.66065979 118.613380432 88.5301742554 65.6573562622 59.3620452881 89.2696380615 378.974456787 252.89642334 232.640884399 259.116516113 330.150085449 418.255187988 471.745300293 465.233306885 382.980285645 603.305053711 921.62713623 861.870300293 997.764404297 845.875244141 565.878112793 555.215759277 694.50213623 681.424926758 803.860168457 786.715698242 293.323425293 304.809509277 311.375274658 325.200927734 322.678741455 319.495117188 283.629455566 263.868560791 301.531036377 136.506576538 145.027893066 153.336425781 160.517837524 165.662322998 143.445907593 132.783630371 137.513366699 131.697891235 136.615539551 134.380386353 135.185302734 143.554626465 160.650115967 146.252471924 120.684486389 90.9529342651 56.8137245178 77.8573684692 37.8189239502 247.724212646 240.728820801 207.207229614 156.463485718 260.318847656 344.961486816 348.34387207 354.945892334 234.354248047 132.372787476 153.914657593 180.090316772 182.579025269 159.249099731 132.940505981 136.504104614 145.943252563 171.361236572 195.788742065 363.287567139 370.420715332 376.68963623 387.752655029 390.933105469 391.259521484 389.668060303 387.53527832 391.400909424 388.980529785 385.095672607 378.818847656 368.896331787 369.437286377 359.550048828 354.186218262 342.943145752 328.099273682 319.299346924 297.528839111 277.064819336 258.690917969 239.992752075 224.979125977 219.483917236 217.913604736 211.903274536 194.106521606 190.771713257 191.192840576 196.576721191 201.649230957 201.204299927 206.402374268 240.549362183 315.455047607 432.813354492 457.469390869 506.919586182 463.389038086 312.676055908 207.525604248 257.434295654 264.112579346 239.286026001 291.57232666 277.872039795 349.566589355 391.765533447 442.871490479 405.243041992 356.104705811 388.486419678 154.559555054 92.8412322998 148.172027588 164.44883728 225.949081421 448.526031494 363.314300537 221.00239563 162.994094849 233.812820435 260.440612793 172.597045898 225.122497559 319.300750732 332.957427979 376.34552002 400.202026367 350.359863281 298.43560791 276.107513428 292.929199219 311.172241211 486.698699951 236.023040771 374.530303955 356.723327637 486.206298828 125.656768799 120.8826828 112.613349915 46.6163215637 111.803344727 181.283554077 132.006790161 169.200057983 209.291748047 229.315307617 252.507751465 275.879272461 258.165771484 263.560333252 127.884963989 198.682937622 155.769973755 153.912811279 185.416854858 188.677383423 138.926651001 94.5295333862 41.3223114014 69.2339477539 38.7513084412 72.3391342163 44.0694618225 21.5739974976 245.812713623 121.881202698 156.806350708 171.670181274 153.185165405 206.237915039 222.694656372 181.262054443 152.692581177 185.847045898 164.8152771 169.511108398